17
Coordinates from ORCA-job cccn_scan Relaxed Surface Scan Step 1
  C      -0.187339     -0.963835     -1.886750
  C       0.478476     -0.123820     -0.975249
  C      -1.474034     -1.448178     -1.606351
  C      -0.149957      0.254871      0.242062
  C      -2.135772     -1.018738     -0.442169
  C      -1.454203     -0.225300      0.491098
  H      -3.154099     -1.360671     -0.231096
  H      -1.893309     -0.005288      1.468787
  C       0.673658      0.507487      1.501275
  H       0.301209     -1.214068     -2.836265
  N       1.594720      0.693614     -1.394857
  O       0.192843      0.412660      2.611651
  O       1.974522      0.787721      1.305875
  H       2.120158      0.843553      0.328780
  H      -1.974551     -2.113707     -2.317449
  H       1.234537      1.587670     -1.734029
  H       2.109270      0.260726     -2.165153
>
17
Coordinates from ORCA-job cccn_scan Relaxed Surface Scan Step 2
  C      -0.217089     -0.927500     -1.915346
  C       0.461970     -0.119363     -0.985289
  C      -1.495518     -1.429069     -1.628501
  C      -0.147971      0.213194      0.251795
  C      -2.132852     -1.056458     -0.431723
  C      -1.442912     -0.283570      0.512109
  H      -3.142394     -1.417631     -0.210902
  H      -1.870809     -0.080737      1.498181
  C       0.663641      0.564430      1.494009
  H       0.258343     -1.147681     -2.878742
  N       1.625119      0.648300     -1.369484
  O       0.167324      0.549433      2.602562
  O       1.963560      0.841328      1.298229
  H       2.126079      0.822175      0.321092
  H      -2.006281     -2.069577     -2.355027
  H       1.319689      1.565896     -1.702051
  H       2.126233      0.201526     -2.140748
>
17
Coordinates from ORCA-job cccn_scan Relaxed Surface Scan Step 3
  C      -0.244602     -0.890677     -1.939644
  C       0.447890     -0.112117     -0.994423
  C      -1.514447     -1.409719     -1.646610
  C      -0.142580      0.173214      0.261777
  C      -2.126924     -1.092857     -0.421277
  C      -1.428740     -0.339161      0.531575
  H      -3.127620     -1.472889     -0.192157
  H      -1.846214     -0.152887      1.525150
  C       0.650269      0.618243      1.484672
  H       0.216911     -1.080751     -2.916047
  N       1.652254      0.603777     -1.349578
  O       0.134404      0.681374      2.583288
  O       1.950923      0.890898      1.293091
  H       2.133274      0.797986      0.323089
  H      -2.035648     -2.026142     -2.386369
  H       1.401078      1.542097     -1.671907
  H       2.135905      0.144304     -2.124468
>
17
Coordinates from ORCA-job cccn_scan Relaxed Surface Scan Step 4
  C      -0.269783     -0.854309     -1.959514
  C       0.435655     -0.102210     -1.002516
  C      -1.531311     -1.390145     -1.661161
  C      -0.134102      0.134614      0.272060
  C      -2.118793     -1.127281     -0.411217
  C      -1.412554     -0.391259      0.549226
  H      -3.110970     -1.524826     -0.175036
  H      -1.820666     -0.221460      1.549489
  C       0.634711      0.667843      1.473216
  H       0.177371     -1.014621     -2.947829
  N       1.676546      0.560488     -1.333704
  O       0.096958      0.805452      2.554802
  O       1.937186      0.936730      1.289007
  H       2.141075      0.771972      0.333040
  H      -2.062610     -1.983898     -2.412130
  H       1.478587      1.516802     -1.642185
  H       2.138832      0.090802     -2.115387
>
17
Coordinates from ORCA-job cccn_scan Relaxed Surface Scan Step 5
  C      -0.292509     -0.818774     -1.975310
  C       0.424598     -0.089688     -1.009116
  C      -1.546479     -1.369707     -1.672663
  C      -0.122829      0.096593      0.282892
  C      -2.109007     -1.159421     -0.401603
  C      -1.395331     -0.439545      0.565427
  H      -3.093338     -1.572911     -0.160126
  H      -1.794687     -0.286476      1.571821
  C       0.617893      0.712432      1.460295
  H       0.139840     -0.949419     -2.974497
  N       1.698042      0.518748     -1.320739
  O       0.057500      0.917968      2.519405
  O       1.922324      0.979850      1.284464
  H       2.147358      0.748191      0.347675
  H      -2.087595     -1.942278     -2.432976
  H       1.552720      1.489528     -1.615183
  H       2.137632      0.039603     -2.109601
>
17
Coordinates from ORCA-job cccn_scan Relaxed Surface Scan Step 6
  C      -0.313277     -0.783169     -1.987311
  C       0.414874     -0.075208     -1.013467
  C      -1.560683     -1.347324     -1.681860
  C      -0.108749      0.058431      0.294753
  C      -2.098051     -1.189247     -0.392590
  C      -1.377040     -0.485173      0.580565
  H      -3.075321     -1.616986     -0.147338
  H      -1.767953     -0.350107      1.592813
  C       0.600058      0.751651      1.446879
  H       0.104054     -0.883934     -2.996313
  N       1.717862      0.477180     -1.309679
  O       0.017101      1.015230      2.480364
  O       1.904898      1.026025      1.278230
  H       2.150770      0.733634      0.364538
  H      -2.111455     -1.899269     -2.450433
  H       1.624081      1.457368     -1.596026
  H       2.134963     -0.014407     -2.102964
>
17
Coordinates from ORCA-job cccn_scan Relaxed Surface Scan Step 7
  C      -0.367078     -0.656491     -2.013812
  C       0.407316     -0.051743     -1.006139
  C      -1.617410     -1.217900     -1.717454
  C      -0.067339     -0.018651      0.326128
  C      -2.087479     -1.200725     -0.392193
  C      -1.322060     -0.595524      0.612487
  H      -3.058112     -1.644144     -0.147819
  H      -1.676591     -0.543923      1.645488
  C       0.605371      0.718599      1.478091
  H       0.020443     -0.682813     -3.039132
  N       1.732923      0.471544     -1.292156
  O       0.107744      0.727840      2.588014
  O       1.747547      1.362553      1.203295
  H       1.947372      1.198995      0.242898
  H      -2.211992     -1.678673     -2.513002
  H       1.717214      0.995692     -2.171529
  H       2.378261     -0.309939     -1.443002
>
17
Coordinates from ORCA-job cccn_scan Relaxed Surface Scan Step 8
  C      -0.402348     -0.584399     -2.033213
  C       0.406060     -0.041326     -1.017930
  C      -1.649672     -1.149559     -1.729264
  C      -0.029356     -0.076606      0.328941
  C      -2.071292     -1.221527     -0.389997
  C      -1.275173     -0.668461      0.621566
  H      -3.034624     -1.677623     -0.140552
  H      -1.604697     -0.658431      1.664256
  C       0.601679      0.725193      1.459186
  H      -0.043634     -0.565037     -3.069217
  N       1.743510      0.430904     -1.294775
  O       0.152166      0.684317      2.587937
  O       1.646135      1.505706      1.138912
  H       1.844666      1.355453      0.179410
  H      -2.273490     -1.557084     -2.531492
  H       1.834492      0.702220     -2.276299
  H       2.411709     -0.329046     -1.137306
>
17
Coordinates from ORCA-job cccn_scan Relaxed Surface Scan Step 9
  C      -0.418824     -0.538402     -2.035412
  C       0.404439     -0.023414     -1.017409
  C      -1.657270     -1.120825     -1.727655
  C      -0.002944     -0.106954      0.337182
  C      -2.047959     -1.249561     -0.383093
  C      -1.241640     -0.714767      0.630396
  H      -3.001681     -1.724096     -0.130990
  H      -1.562704     -0.723095      1.675870
  C       0.571361      0.766320      1.446119
  H      -0.076557     -0.487783     -3.075971
  N       1.764512      0.384582     -1.286768
  O       0.075729      0.786336      2.555567
  O       1.618838      1.541171      1.121293
  H       1.861553      1.333104      0.182997
  H      -2.294426     -1.504545     -2.531188
  H       1.874547      0.668967     -2.262717
  H       2.389158     -0.412343     -1.138058
>
17
Coordinates from ORCA-job cccn_scan Relaxed Surface Scan Step 10
  C      -0.434832     -0.489297     -2.034220
  C       0.405594     -0.004999     -1.015060
  C      -1.663741     -1.090086     -1.723016
  C       0.026221     -0.135161      0.345702
  C      -2.021456     -1.277410     -0.375997
  C      -1.203951     -0.761818      0.638777
  H      -2.964461     -1.771848     -0.121687
  H      -1.517075     -0.789408      1.686516
  C       0.536592      0.807813      1.429876
  H      -0.109512     -0.407520     -3.078309
  N       1.785419      0.334083     -1.281229
  O      -0.008547      0.886807      2.512389
  O       1.588003      1.578007      1.103178
  H       1.876130      1.314609      0.192722
  H      -2.315356     -1.448808     -2.526564
  H       1.914086      0.627807     -2.252179
  H       2.363017     -0.498077     -1.140737
>
17
Coordinates from ORCA-job cccn_scan Relaxed Surface Scan Step 11
  C      -0.450108     -0.437241     -2.029407
  C       0.410087      0.013932     -1.011461
  C      -1.669252     -1.056592     -1.714988
  C       0.058760     -0.161303      0.354526
  C      -1.991578     -1.304526     -0.368759
  C      -1.161587     -0.808911      0.646363
  H      -2.922777     -1.820055     -0.112700
  H      -1.467112     -0.857014      1.695859
  C       0.497517      0.848717      1.410400
  H      -0.142672     -0.324530     -3.076151
  N       1.805885      0.278835     -1.279333
  O      -0.099853      0.981697      2.458474
  O       1.552038      1.617638      1.084890
  H       1.886336      1.303485      0.208231
  H      -2.336517     -1.389006     -2.517081
  H       1.953375      0.574870     -2.246869
  H       2.333590     -0.585302     -1.141833
